file 243127 1753346802                                          
version 3
run Base-0-20250724-17:46:42-83221
attr configname Base
attr datetime 20250724-17:46:42
attr datetimef 20250724-174642
attr experiment Base
attr inifile ini/omnetpp.ini
attr iterationvars $n=10
attr iterationvarsd n=10
attr iterationvarsf n=10-
attr measurement $n=10
attr network csma_ca_fakewired.FakeWireCsmaCaNetwork
attr processid 83221
attr repetition 0
attr replication #0
attr resultdir results
attr runnumber 0
attr seedset 0
itervar n 10
config **.numHosts 10
config network csma_ca_fakewired.FakeWireCsmaCaNetwork
config sim-time-limit 60s
config load-libs /home/kimdawoon/study/workspace/research/inet/out/clang-release/src/INET
config cmdenv-interactive false
config *.host[*].numApps 1
config *.host[*].app[0].typename UdpBasicApp
config *.host[*].app[0].destAddresses "\"host[0]\""
config *.host[*].app[0].destPort 5000
config *.host[*].app[0].messageLength 1000B
config *.host[*].app[0].sendInterval exponential(1s)
config *.host[0].numApps 2
config *.host[0].app[1].typename UdpSink
config *.host[0].app[1].localPort 5000
config *.host[*].mobility.typename StationaryMobility
config *.host[*].mobility.initialX 0m
config *.host[*].mobility.initialY 0m
config *.host[*].mobility.initialZ 0m
config *.radioMedium.backgroundNoise.power -200dBm
config **.wlan[0].mac.rtsThreshold 999999B
config **.wlan[0].mac.cwMin 15
config **.wlan[0].mac.cwMax 1023
config **.wlan[0].radio.transmitter.power 100mW
config **.wlan[0].radio.receiver.sensitivity -120dBm
config **.wlan[0].radio.analogModel.typename ScalarAnalogModel
config **.wlan[0].radio.pathLoss.typename FreeSpacePathLoss
config **.vector-recording true

vector 0 FakeWireCsmaCaNetwork.host[0].lo[0].lo rcvdPkFromHl:vector(packetBytes) ETV
attr interpolationmode none
attr recordingmode vector(packetBytes)
attr source packetReceivedFromUpper
attr title "packets received from higher layer, packetBytes"
vector 1 FakeWireCsmaCaNetwork.host[0].lo[0].lo passedUpPk:vector(packetBytes) ETV
attr interpolationmode none
attr recordingmode vector(packetBytes)
attr source packetSentToUpper
attr title "packets passed to higher layer, packetBytes"
vector 2 FakeWireCsmaCaNetwork.host[0].lo[0] packetDropInterfaceDown:vector(packetBytes) ETV
attr interpolationmode none
attr recordingmode vector(packetBytes)
attr source packetDropReasonIsInterfaceDown(packetDropped)
attr title "packet drops: interface down, packetBytes"
vector 3 FakeWireCsmaCaNetwork.host[0].lo[0] packetDropNoCarrier:vector(packetBytes) ETV
attr interpolationmode none
attr recordingmode vector(packetBytes)
attr source packetDropReasonIsNoCarrier(packetDropped)
attr title "packet drops: no carrier, packetBytes"
vector 4 FakeWireCsmaCaNetwork.host[0].wlan[0].agent sentRequest:vector ETV
attr recordingmode vector
attr title "sent requests"
vector 5 FakeWireCsmaCaNetwork.host[0].wlan[0].agent acceptConfirm:vector ETV
attr recordingmode vector
attr title "accepted confirms"
vector 6 FakeWireCsmaCaNetwork.host[0].wlan[0].agent dropConfirm:vector ETV
attr recordingmode vector
attr title "dropped confirms"
vector 7 FakeWireCsmaCaNetwork.host[0].wlan[0].mac.dcf.channelAccess.pendingQueue queueLength:vector ETV
attr autoWarmupFilter false
attr interpolationmode sample-hold
attr recordingmode vector
attr source "warmup(atomic(constant0(packetPushEnded) + count(packetPushStarted) - count(packetPulled) - count(packetRemoved) - count(packetDropped)))"
attr title "queue length"
attr unit pk
vector 8 FakeWireCsmaCaNetwork.host[0].wlan[0].mac.dcf.channelAccess.pendingQueue queueBitLength:vector ETV
attr autoWarmupFilter false
attr interpolationmode sample-hold
attr recordingmode vector
attr source "warmup(atomic(constant0(packetPushEnded) + sum(packetLength(packetPushStarted)) - sum(packetLength(packetPulled)) - sum(packetLength(packetRemoved)) - sum(packetLength(packetDropped))))"
attr title "queue bit length"
attr unit b
vector 9 FakeWireCsmaCaNetwork.host[0].wlan[0].mac.dcf.channelAccess.pendingQueue queueingTime:vector ETV
attr interpolationmode none
attr recordingmode vector
attr source queueingTime(packetPulled)
attr title "queueing times"
attr unit s
vector 10 FakeWireCsmaCaNetwork.host[0].wlan[0].mac.dcf.channelAccess.pendingQueue incomingPacketLengths:vector ETV
attr interpolationmode none
attr recordingmode vector
attr source packetLength(packetPushStarted)
attr title "incoming packet lengths"
attr unit b
vector 11 FakeWireCsmaCaNetwork.host[0].wlan[0].mac.dcf.channelAccess.pendingQueue incomingDataRate:vector ETV
attr interpolationmode linear
attr recordingmode vector
attr source throughput(packetPushStarted)
attr title "incoming datarate"
attr unit bps
vector 12 FakeWireCsmaCaNetwork.host[0].wlan[0].mac.dcf.channelAccess.pendingQueue outgoingPacketLengths:vector ETV
attr interpolationmode none
attr recordingmode vector
attr source packetLength(packetPulled)
attr title "outgoing packet lengths"
attr unit b
vector 13 FakeWireCsmaCaNetwork.host[0].wlan[0].mac.dcf.channelAccess.pendingQueue outgoingDataRate:vector ETV
attr interpolationmode linear
attr recordingmode vector
attr source throughput(packetPulled)
attr title "outgoing datarate"
attr unit bps
vector 14 FakeWireCsmaCaNetwork.host[0].wlan[0].mac.dcf.channelAccess.pendingQueue droppedPacketLengthsQueueOverflow:vector ETV
attr interpolationmode none
attr recordingmode vector
attr source packetLength(packetDropReasonIsQueueOverflow(packetDropped))
attr title "dropped packet lengths: queue overflow"
attr unit b
vector 15 FakeWireCsmaCaNetwork.host[0].wlan[0].mac.dcf.channelAccess.pendingQueue flowQueueingTime:vector ETV
attr interpolationmode none
attr recordingmode vector
attr source queueingTime(demuxFlow(packetPulled))
attr title "flow queueing times"
attr unit s
vector 16 FakeWireCsmaCaNetwork.host[0].wlan[0].mac.dcf.channelAccess.pendingQueue flowIncomingDataRate:vector ETV
attr interpolationmode linear
attr recordingmode vector
attr source throughput(flowPacketLength(demuxFlow(packetPushStarted)))
attr title "flow specific incoming data rate"
attr unit bps
vector 17 FakeWireCsmaCaNetwork.host[0].wlan[0].mac.dcf.channelAccess.pendingQueue flowOutgoingDataRate:vector ETV
attr interpolationmode linear
attr recordingmode vector
attr source throughput(flowPacketLength(demuxFlow(packetPulled)))
attr title "flow specific outgoing data rate"
attr unit bps
vector 18 FakeWireCsmaCaNetwork.host[0].wlan[0].mac.dcf.channelAccess.inProgressFrames queueingTime:vector ETV
attr interpolationmode none
attr recordingmode vector
attr source queueingTime(packetDequeued)
attr title "queueing times"
vector 19 FakeWireCsmaCaNetwork.host[0].wlan[0].mac.dcf.channelAccess.inProgressFrames queueLength:vector ETV
attr autoWarmupFilter false
attr interpolationmode sample-hold
attr recordingmode vector
attr source "warmup(count(packetEnqueued) - count(packetDequeued))"
attr title "queue length"
vector 20 FakeWireCsmaCaNetwork.host[0].wlan[0].mac.dcf.channelAccess.contention backoffPeriodGenerated:vector ETV
attr interpolationmode none
attr recordingmode vector
attr title "backoff periods"
vector 21 FakeWireCsmaCaNetwork.host[0].wlan[0].mac.dcf.channelAccess.contention backoffActive:vector ETV
attr autoWarmupFilter false
attr interpolationmode sample-hold
attr recordingmode vector
attr source warmup(count(backoffStarted)-count(backoffStopped))
attr title "backoff active"
vector 22 FakeWireCsmaCaNetwork.host[0].wlan[0].mac.dcf.channelAccess.contention stateChanged:vector ETV
attr enum IDLE,DEFER,IFS_AND_BACKOFF
attr interpolationmode none
attr recordingmode vector
attr title "contention state changed"
attr type enum
vector 23 FakeWireCsmaCaNetwork.host[0].wlan[0].mac.dcf.recipientMacDataService packetDropDuplicateDetected:vector(packetBytes) ETV
attr interpolationmode none
attr recordingmode vector(packetBytes)
attr source packetDropReasonIsDuplicateDetected(packetDropped)
attr title "packet drops: duplicate detected, packetBytes"
vector 24 FakeWireCsmaCaNetwork.host[0].wlan[0].mac.dcf.recoveryProcedure contentionWindowChanged:vector ETV
attr interpolationmode sample-hold
attr recordingmode vector
attr title "contention window"
vector 25 FakeWireCsmaCaNetwork.host[0].wlan[0].mac.dcf packetSentToPeer:vector(packetBytes) ETV
attr interpolationmode none
attr recordingmode vector(packetBytes)
attr title "packets sent, packetBytes"
vector 26 FakeWireCsmaCaNetwork.host[0].wlan[0].mac.dcf packetSentToPeerUnicast:vector(packetBytes) ETV
attr interpolationmode none
attr recordingmode vector(packetBytes)
attr source ieee80211Unicast(packetSentToPeer)
attr title "packets sent: unicast, packetBytes"
vector 27 FakeWireCsmaCaNetwork.host[0].wlan[0].mac.dcf packetSentToPeerMulticast:vector(packetBytes) ETV
attr interpolationmode none
attr recordingmode vector(packetBytes)
attr source ieee80211Multicast(packetSentToPeer)
attr title "packets sent: multicast, packetBytes"
vector 28 FakeWireCsmaCaNetwork.host[0].wlan[0].mac.dcf packetSentToPeerBroadcast:vector(packetBytes) ETV
attr interpolationmode none
attr recordingmode vector(packetBytes)
attr source ieee80211Broadcast(packetSentToPeer)
attr title "packets sent: broadcast , packetBytes"
vector 29 FakeWireCsmaCaNetwork.host[0].wlan[0].mac.dcf packetSentToPeerWithRetry:vector(packetBytes) ETV
attr interpolationmode none
attr recordingmode vector(packetBytes)
attr source ieee80211Retry(packetSentToPeer)
attr title "packets sent: with retry, packetBytes"
vector 30 FakeWireCsmaCaNetwork.host[0].wlan[0].mac.dcf packetSentToPeerWithoutRetry:vector(packetBytes) ETV
attr interpolationmode none
attr recordingmode vector(packetBytes)
attr source ieee80211NotRetry(packetSentToPeer)
attr title "packets sent: without retry, packetBytes"
vector 31 FakeWireCsmaCaNetwork.host[0].wlan[0].mac.dcf packetReceivedFromPeer:vector(packetBytes) ETV
attr interpolationmode none
attr recordingmode vector(packetBytes)
attr title "packets received, packetBytes"
vector 32 FakeWireCsmaCaNetwork.host[0].wlan[0].mac.dcf packetReceivedFromPeerUnicast:vector(packetBytes) ETV
attr interpolationmode none
attr recordingmode vector(packetBytes)
attr source ieee80211Unicast(packetReceivedFromPeer)
attr title "packets received: unicast, packetBytes"
vector 33 FakeWireCsmaCaNetwork.host[0].wlan[0].mac.dcf packetReceivedFromPeerMulticast:vector(packetBytes) ETV
attr interpolationmode none
attr recordingmode vector(packetBytes)
attr source ieee80211Multicast(packetReceivedFromPeer)
attr title "packets received: multicast, packetBytes"
vector 34 FakeWireCsmaCaNetwork.host[0].wlan[0].mac.dcf packetReceivedFromPeerBroadcast:vector(packetBytes) ETV
attr interpolationmode none
attr recordingmode vector(packetBytes)
attr source ieee80211Broadcast(packetReceivedFromPeer)
attr title "packets received: broadcast, packetBytes"
vector 35 FakeWireCsmaCaNetwork.host[0].wlan[0].mac.dcf packetReceivedFromPeerWithRetry:vector(packetBytes) ETV
attr interpolationmode none
attr recordingmode vector(packetBytes)
attr source ieee80211Retry(packetReceivedFromPeer)
attr title "packets received: with retry, packetBytes"
vector 36 FakeWireCsmaCaNetwork.host[0].wlan[0].mac.dcf packetReceivedFromPeerWithoutRetry:vector(packetBytes) ETV
attr interpolationmode none
attr recordingmode vector(packetBytes)
attr source ieee80211NotRetry(packetReceivedFromPeer)
attr title "packets received: without retry, packetBytes"
vector 37 FakeWireCsmaCaNetwork.host[0].wlan[0].mac.dcf packetDrop:vector(packetBytes) ETV
attr interpolationmode none
attr recordingmode vector(packetBytes)
attr source packetDropped
attr title "packet drops, packetBytes"
vector 38 FakeWireCsmaCaNetwork.host[0].wlan[0].mac.dcf packetDropNotAddressedToUs:vector(packetBytes) ETV
attr interpolationmode none
attr recordingmode vector(packetBytes)
attr source packetDropReasonIsNotAddressedToUs(packetDropped)
attr title "packet drops: not addressed to us, packetBytes"
vector 39 FakeWireCsmaCaNetwork.host[0].wlan[0].mac.dcf packetDropQueueOverflow:vector(packetBytes) ETV
attr interpolationmode none
attr recordingmode vector(packetBytes)
attr source packetDropReasonIsQueueOverflow(packetDropped)
attr title "packet drops: queue overflow, packetBytes"
vector 40 FakeWireCsmaCaNetwork.host[0].wlan[0].mac.dcf packetDropRetryLimitReached:vector(packetBytes) ETV
attr interpolationmode none
attr recordingmode vector(packetBytes)
attr source packetDropReasonIsRetryLimitReached(packetDropped)
attr title "packet drops: retry limit reached, packetBytes"
vector 41 FakeWireCsmaCaNetwork.host[0].wlan[0].mac.dcf frameSequenceActive:vector ETV
attr autoWarmupFilter false
attr interpolationmode sample-hold
attr recordingmode vector
attr source warmup(count(frameSequenceStarted)-count(frameSequenceFinished))
attr title "frame sequence active"
vector 42 FakeWireCsmaCaNetwork.host[0].wlan[0].mac.dcf datarateSelected:vector ETV
attr interpolationmode none
attr recordingmode vector
attr title "datarates selected"
vector 43 FakeWireCsmaCaNetwork.host[0].wlan[0].mac.rx nav:vector ETV
attr interpolationmode linear
attr recordingmode vector
attr source navChanged
attr title "network allocation vector"
vector 44 FakeWireCsmaCaNetwork.host[0].wlan[0].mac packetSentToUpper:vector(packetBytes) ETV
attr interpolationmode none
attr recordingmode vector(packetBytes)
attr title "packets sent to upper layer, packetBytes"
vector 45 FakeWireCsmaCaNetwork.host[0].wlan[0].mac packetSentToLower:vector(packetBytes) ETV
attr interpolationmode none
attr recordingmode vector(packetBytes)
attr title "packets sent to lower layer, packetBytes"
vector 46 FakeWireCsmaCaNetwork.host[0].wlan[0].mac packetReceivedFromUpper:vector(packetBytes) ETV
attr interpolationmode none
attr recordingmode vector(packetBytes)
attr title "packets received from upper layer, packetBytes"
vector 47 FakeWireCsmaCaNetwork.host[0].wlan[0].mac packetReceivedFromLower:vector(packetBytes) ETV
attr interpolationmode none
attr recordingmode vector(packetBytes)
attr title "packets received from lower layer, packetBytes"
vector 48 FakeWireCsmaCaNetwork.host[0].wlan[0].mac packetDrop:vector(packetBytes) ETV
attr interpolationmode none
attr recordingmode vector(packetBytes)
attr source packetDropped
attr title "packet drops, packetBytes"
vector 49 FakeWireCsmaCaNetwork.host[0].wlan[0].mac packetDropIncorrectlyReceived:vector(packetBytes) ETV
attr interpolationmode none
attr recordingmode vector(packetBytes)
attr source packetDropReasonIsIncorrectlyReceived(packetDropped)
attr title "packet drops: incorrectly received, packetBytes"
vector 50 FakeWireCsmaCaNetwork.host[0].wlan[0].mac packetDropNotAddressedToUs:vector(packetBytes) ETV
attr interpolationmode none
attr recordingmode vector(packetBytes)
attr source packetDropReasonIsNotAddressedToUs(packetDropped)
attr title "packet drops: not addressed to us, packetBytes"
vector 51 FakeWireCsmaCaNetwork.host[0].wlan[0].mac packetDropQueueOverflow:vector(packetBytes) ETV
attr interpolationmode none
attr recordingmode vector(packetBytes)
attr source packetDropReasonIsQueueOverflow(packetDropped)
attr title "packet drops: queue overflow, packetBytes"
vector 52 FakeWireCsmaCaNetwork.host[0].wlan[0].mac packetDropRetryLimitReached:vector(packetBytes) ETV
attr interpolationmode none
attr recordingmode vector(packetBytes)
attr source packetDropReasonIsRetryLimitReached(packetDropped)
attr title "packet drops: retry limit reached, packetBytes"
vector 53 FakeWireCsmaCaNetwork.host[0].wlan[0].mac packetDropDuplicateDetected:vector(packetBytes) ETV
attr interpolationmode none
attr recordingmode vector(packetBytes)
attr source packetDropReasonIsDuplicateDetected(packetDropped)
attr title "packet drops: duplicate detected, packetBytes"
vector 54 FakeWireCsmaCaNetwork.host[0].wlan[0].mac packetDropOther:vector(packetBytes) ETV
attr interpolationmode none
attr recordingmode vector(packetBytes)
attr source packetDropReasonIsOther(packetDropped)
attr title "packet drops: other, packetBytes"
vector 55 FakeWireCsmaCaNetwork.host[0].wlan[0].radio radioMode:vector ETV
attr interpolationmode sample-hold
attr recordingmode vector
attr source radioModeChanged
attr title "Radio mode"
vector 56 FakeWireCsmaCaNetwork.host[0].wlan[0].radio receptionState:vector ETV
attr interpolationmode sample-hold
attr recordingmode vector
attr source receptionStateChanged
attr title "Radio reception state"
vector 57 FakeWireCsmaCaNetwork.host[0].wlan[0].radio transmissionState:vector ETV
attr interpolationmode sample-hold
attr recordingmode vector
attr source transmissionStateChanged
attr title "Radio transmission state"
vector 58 FakeWireCsmaCaNetwork.host[0].wlan[0].radio radioChannel:vector ETV
attr interpolationmode sample-hold
attr recordingmode vector
attr source radioChannelChanged
attr title "Radio channel"
vector 59 FakeWireCsmaCaNetwork.host[0].wlan[0] packetDropInterfaceDown:vector(packetBytes) ETV
attr interpolationmode none
attr recordingmode vector(packetBytes)
attr source packetDropReasonIsInterfaceDown(packetDropped)
attr title "packet drops: interface down, packetBytes"
vector 60 FakeWireCsmaCaNetwork.host[0].wlan[0] packetDropNoCarrier:vector(packetBytes) ETV
attr interpolationmode none
attr recordingmode vector(packetBytes)
attr source packetDropReasonIsNoCarrier(packetDropped)
attr title "packet drops: no carrier, packetBytes"
vector 61 FakeWireCsmaCaNetwork.host[0].ipv4.ip packetDropAddressResolutionFailed:vector(packetBytes) ETV
attr interpolationmode none
attr recordingmode vector(packetBytes)
attr source packetDropReasonIsAddressResolutionFailed(packetDropped)
attr title "packet drop: address resolution failed, packetBytes"
vector 62 FakeWireCsmaCaNetwork.host[0].ipv4.ip packetDropHopLimitReached:vector(packetBytes) ETV
attr interpolationmode none
attr recordingmode vector(packetBytes)
attr source packetDropReasonIsHopLimitReached(packetDropped)
attr title "packet drop: hop limit reached, packetBytes"
vector 63 FakeWireCsmaCaNetwork.host[0].ipv4.ip packetDropForwardingDisabled:vector(packetBytes) ETV
attr interpolationmode none
attr recordingmode vector(packetBytes)
attr source packetDropReasonIsForwardingDisabled(packetDropped)
attr title "packet drop: forwarding disabled, packetBytes"
vector 64 FakeWireCsmaCaNetwork.host[0].ipv4.ip packetDropNoInterfaceFound:vector(packetBytes) ETV
attr interpolationmode none
attr recordingmode vector(packetBytes)
attr source packetDropReasonIsNoInterfaceFound(packetDropped)
attr title "packet drop: no interface found, packetBytes"
vector 65 FakeWireCsmaCaNetwork.host[0].ipv4.ip packetDropNoRouteFound:vector(packetBytes) ETV
attr interpolationmode none
attr recordingmode vector(packetBytes)
attr source packetDropReasonIsNoRouteFound(packetDropped)
attr title "packet drop: no route found, packetBytes"
vector 66 FakeWireCsmaCaNetwork.host[0].ipv4.ip packetDropUndefined:vector(packetBytes) ETV
attr interpolationmode none
attr recordingmode vector(packetBytes)
attr source packetDropReasonIsUndefined(packetDropped)
attr title "packet drop: undefined, packetBytes"
vector 67 FakeWireCsmaCaNetwork.host[0].ipv4.arp arpRequestSent:vector(packetBytes) ETV
attr recordingmode vector(packetBytes)
attr source arpRequestSent
attr title "ARP request sent, packetBytes"
vector 68 FakeWireCsmaCaNetwork.host[0].ipv4.arp arpReplySent:vector(packetBytes) ETV
attr recordingmode vector(packetBytes)
attr source arpReplySent
attr title "ARP replies sent, packetBytes"
vector 69 FakeWireCsmaCaNetwork.host[0].udp packetSent:vector(packetBytes) ETV
attr interpolationmode none
attr recordingmode vector(packetBytes)
attr source packetSent
attr title "packets sent, packetBytes"
vector 70 FakeWireCsmaCaNetwork.host[0].udp packetReceived:vector(packetBytes) ETV
attr interpolationmode none
attr recordingmode vector(packetBytes)
attr source packetReceived
attr title "packets received, packetBytes"
vector 71 FakeWireCsmaCaNetwork.host[0].udp passedUpPk:vector(count) ETV
attr interpolationmode none
attr recordingmode vector(count)
attr source packetSentToUpper
attr title "packets passed up, count"
vector 72 FakeWireCsmaCaNetwork.host[0].udp droppedPkWrongPort:vector(count) ETV
attr interpolationmode none
attr recordingmode vector(count)
attr source packetDropReasonIsNoPortFound(packetDropped)
attr title "packets dropped (wrong port), count"
vector 73 FakeWireCsmaCaNetwork.host[0].udp droppedPkBadChecksum:vector(count) ETV
attr interpolationmode none
attr recordingmode vector(count)
attr source packetDropReasonIsIncorrectlyReceived(packetDropped)
attr title "packets dropped (checksum error), count"
vector 74 FakeWireCsmaCaNetwork.host[0].app[0] packetReceived:vector(packetBytes) ETV
attr interpolationmode none
attr recordingmode vector(packetBytes)
attr source packetReceived
attr title "packets received, packetBytes"
vector 75 FakeWireCsmaCaNetwork.host[0].app[0] throughput:vector ETV
attr recordingmode vector
attr source throughput(packetReceived)
attr title throughput
attr unit bps
vector 76 FakeWireCsmaCaNetwork.host[0].app[0] packetSent:vector(packetBytes) ETV
attr interpolationmode none
attr recordingmode vector(packetBytes)
attr source packetSent
attr title "packets sent, packetBytes"
vector 77 FakeWireCsmaCaNetwork.host[0].app[0] rcvdPkLifetime:vector ETV
attr interpolationmode none
attr recordingmode vector
attr source dataAge(packetReceived)
attr title "received packet lifetime"
attr unit s
vector 78 FakeWireCsmaCaNetwork.host[0].app[0] rcvdPkSeqNo:vector ETV
attr interpolationmode none
attr recordingmode vector
attr source appPkSeqNo(packetReceived)
attr title "received packet sequence number"
vector 79 FakeWireCsmaCaNetwork.host[1].lo[0].lo rcvdPkFromHl:vector(packetBytes) ETV
attr interpolationmode none
attr recordingmode vector(packetBytes)
attr source packetReceivedFromUpper
attr title "packets received from higher layer, packetBytes"
vector 80 FakeWireCsmaCaNetwork.host[1].lo[0].lo passedUpPk:vector(packetBytes) ETV
attr interpolationmode none
attr recordingmode vector(packetBytes)
attr source packetSentToUpper
attr title "packets passed to higher layer, packetBytes"
vector 81 FakeWireCsmaCaNetwork.host[1].lo[0] packetDropInterfaceDown:vector(packetBytes) ETV
attr interpolationmode none
attr recordingmode vector(packetBytes)
attr source packetDropReasonIsInterfaceDown(packetDropped)
attr title "packet drops: interface down, packetBytes"
vector 82 FakeWireCsmaCaNetwork.host[1].lo[0] packetDropNoCarrier:vector(packetBytes) ETV
attr interpolationmode none
attr recordingmode vector(packetBytes)
attr source packetDropReasonIsNoCarrier(packetDropped)
attr title "packet drops: no carrier, packetBytes"
vector 83 FakeWireCsmaCaNetwork.host[1].wlan[0].agent sentRequest:vector ETV
attr recordingmode vector
attr title "sent requests"
vector 84 FakeWireCsmaCaNetwork.host[1].wlan[0].agent acceptConfirm:vector ETV
attr recordingmode vector
attr title "accepted confirms"
vector 85 FakeWireCsmaCaNetwork.host[1].wlan[0].agent dropConfirm:vector ETV
attr recordingmode vector
attr title "dropped confirms"
vector 86 FakeWireCsmaCaNetwork.host[1].wlan[0].mac.dcf.channelAccess.pendingQueue queueLength:vector ETV
attr autoWarmupFilter false
attr interpolationmode sample-hold
attr recordingmode vector
attr source "warmup(atomic(constant0(packetPushEnded) + count(packetPushStarted) - count(packetPulled) - count(packetRemoved) - count(packetDropped)))"
attr title "queue length"
attr unit pk
vector 87 FakeWireCsmaCaNetwork.host[1].wlan[0].mac.dcf.channelAccess.pendingQueue queueBitLength:vector ETV
attr autoWarmupFilter false
attr interpolationmode sample-hold
attr recordingmode vector
attr source "warmup(atomic(constant0(packetPushEnded) + sum(packetLength(packetPushStarted)) - sum(packetLength(packetPulled)) - sum(packetLength(packetRemoved)) - sum(packetLength(packetDropped))))"
attr title "queue bit length"
attr unit b
vector 88 FakeWireCsmaCaNetwork.host[1].wlan[0].mac.dcf.channelAccess.pendingQueue queueingTime:vector ETV
attr interpolationmode none
attr recordingmode vector
attr source queueingTime(packetPulled)
attr title "queueing times"
attr unit s
vector 89 FakeWireCsmaCaNetwork.host[1].wlan[0].mac.dcf.channelAccess.pendingQueue incomingPacketLengths:vector ETV
attr interpolationmode none
attr recordingmode vector
attr source packetLength(packetPushStarted)
attr title "incoming packet lengths"
attr unit b
vector 90 FakeWireCsmaCaNetwork.host[1].wlan[0].mac.dcf.channelAccess.pendingQueue incomingDataRate:vector ETV
attr interpolationmode linear
attr recordingmode vector
attr source throughput(packetPushStarted)
attr title "incoming datarate"
attr unit bps
vector 91 FakeWireCsmaCaNetwork.host[1].wlan[0].mac.dcf.channelAccess.pendingQueue outgoingPacketLengths:vector ETV
attr interpolationmode none
attr recordingmode vector
attr source packetLength(packetPulled)
attr title "outgoing packet lengths"
attr unit b
vector 92 FakeWireCsmaCaNetwork.host[1].wlan[0].mac.dcf.channelAccess.pendingQueue outgoingDataRate:vector ETV
attr interpolationmode linear
attr recordingmode vector
attr source throughput(packetPulled)
attr title "outgoing datarate"
attr unit bps
vector 93 FakeWireCsmaCaNetwork.host[1].wlan[0].mac.dcf.channelAccess.pendingQueue droppedPacketLengthsQueueOverflow:vector ETV
attr interpolationmode none
attr recordingmode vector
attr source packetLength(packetDropReasonIsQueueOverflow(packetDropped))
attr title "dropped packet lengths: queue overflow"
attr unit b
vector 94 FakeWireCsmaCaNetwork.host[1].wlan[0].mac.dcf.channelAccess.pendingQueue flowQueueingTime:vector ETV
attr interpolationmode none
attr recordingmode vector
attr source queueingTime(demuxFlow(packetPulled))
attr title "flow queueing times"
attr unit s
vector 95 FakeWireCsmaCaNetwork.host[1].wlan[0].mac.dcf.channelAccess.pendingQueue flowIncomingDataRate:vector ETV
attr interpolationmode linear
attr recordingmode vector
attr source throughput(flowPacketLength(demuxFlow(packetPushStarted)))
attr title "flow specific incoming data rate"
attr unit bps
vector 96 FakeWireCsmaCaNetwork.host[1].wlan[0].mac.dcf.channelAccess.pendingQueue flowOutgoingDataRate:vector ETV
attr interpolationmode linear
attr recordingmode vector
attr source throughput(flowPacketLength(demuxFlow(packetPulled)))
attr title "flow specific outgoing data rate"
attr unit bps
vector 97 FakeWireCsmaCaNetwork.host[1].wlan[0].mac.dcf.channelAccess.inProgressFrames queueingTime:vector ETV
attr interpolationmode none
attr recordingmode vector
attr source queueingTime(packetDequeued)
attr title "queueing times"
vector 98 FakeWireCsmaCaNetwork.host[1].wlan[0].mac.dcf.channelAccess.inProgressFrames queueLength:vector ETV
attr autoWarmupFilter false
attr interpolationmode sample-hold
attr recordingmode vector
attr source "warmup(count(packetEnqueued) - count(packetDequeued))"
attr title "queue length"
vector 99 FakeWireCsmaCaNetwork.host[1].wlan[0].mac.dcf.channelAccess.contention backoffPeriodGenerated:vector ETV
attr interpolationmode none
attr recordingmode vector
attr title "backoff periods"
vector 100 FakeWireCsmaCaNetwork.host[1].wlan[0].mac.dcf.channelAccess.contention backoffActive:vector ETV
attr autoWarmupFilter false
attr interpolationmode sample-hold
attr recordingmode vector
attr source warmup(count(backoffStarted)-count(backoffStopped))
attr title "backoff active"
vector 101 FakeWireCsmaCaNetwork.host[1].wlan[0].mac.dcf.channelAccess.contention stateChanged:vector ETV
attr enum IDLE,DEFER,IFS_AND_BACKOFF
attr interpolationmode none
attr recordingmode vector
attr title "contention state changed"
attr type enum
vector 102 FakeWireCsmaCaNetwork.host[1].wlan[0].mac.dcf.recipientMacDataService packetDropDuplicateDetected:vector(packetBytes) ETV
attr interpolationmode none
attr recordingmode vector(packetBytes)
attr source packetDropReasonIsDuplicateDetected(packetDropped)
attr title "packet drops: duplicate detected, packetBytes"
vector 103 FakeWireCsmaCaNetwork.host[1].wlan[0].mac.dcf.recoveryProcedure contentionWindowChanged:vector ETV
attr interpolationmode sample-hold
attr recordingmode vector
attr title "contention window"
vector 104 FakeWireCsmaCaNetwork.host[1].wlan[0].mac.dcf packetSentToPeer:vector(packetBytes) ETV
attr interpolationmode none
attr recordingmode vector(packetBytes)
attr title "packets sent, packetBytes"
vector 105 FakeWireCsmaCaNetwork.host[1].wlan[0].mac.dcf packetSentToPeerUnicast:vector(packetBytes) ETV
attr interpolationmode none
attr recordingmode vector(packetBytes)
attr source ieee80211Unicast(packetSentToPeer)
attr title "packets sent: unicast, packetBytes"
vector 106 FakeWireCsmaCaNetwork.host[1].wlan[0].mac.dcf packetSentToPeerMulticast:vector(packetBytes) ETV
attr interpolationmode none
attr recordingmode vector(packetBytes)
attr source ieee80211Multicast(packetSentToPeer)
attr title "packets sent: multicast, packetBytes"
vector 107 FakeWireCsmaCaNetwork.host[1].wlan[0].mac.dcf packetSentToPeerBroadcast:vector(packetBytes) ETV
attr interpolationmode none
attr recordingmode vector(packetBytes)
attr source ieee80211Broadcast(packetSentToPeer)
attr title "packets sent: broadcast , packetBytes"
vector 108 FakeWireCsmaCaNetwork.host[1].wlan[0].mac.dcf packetSentToPeerWithRetry:vector(packetBytes) ETV
attr interpolationmode none
attr recordingmode vector(packetBytes)
attr source ieee80211Retry(packetSentToPeer)
attr title "packets sent: with retry, packetBytes"
vector 109 FakeWireCsmaCaNetwork.host[1].wlan[0].mac.dcf packetSentToPeerWithoutRetry:vector(packetBytes) ETV
attr interpolationmode none
attr recordingmode vector(packetBytes)
attr source ieee80211NotRetry(packetSentToPeer)
attr title "packets sent: without retry, packetBytes"
vector 110 FakeWireCsmaCaNetwork.host[1].wlan[0].mac.dcf packetReceivedFromPeer:vector(packetBytes) ETV
attr interpolationmode none
attr recordingmode vector(packetBytes)
attr title "packets received, packetBytes"
vector 111 FakeWireCsmaCaNetwork.host[1].wlan[0].mac.dcf packetReceivedFromPeerUnicast:vector(packetBytes) ETV
attr interpolationmode none
attr recordingmode vector(packetBytes)